% Model:              Step.3D.mph
% Version:            COMSOL 5
% Date:               May 2 2017
% Dimension:          3
% Nodes:              775
% Expressions:        196
% Description:        Temperature
% Length unit:        mm
% Grid
42.30000	42.40000	42.50000	42.60000	42.70000
-0.20000	-0.10000	-0.00000	+0.10000	+0.20000
-0.00000	-0.10000	-0.20000	-0.30000	-0.40000	-0.50000	-0.60000	-0.70000	-0.80000	-0.90000	-1.00000	-1.10000	-1.20000	-1.30000	-1.40000	-1.50000	-1.60000	-1.70000	-1.80000	-1.90000	-2.00000	-2.10000	-2.20000	-2.30000	-2.40000	-2.50000	-2.60000	-2.70000	-2.80000	-2.90000	-3.00000
% Data
% T (K) @ t=5
320.57          320.57         320.57         320.57         320.57
320.57          320.57         320.57         320.57         320.57
320.57          320.57         320.58         320.58         320.58
320.57          320.58         320.58         320.58         320.58
320.58          320.58         320.58         320.58         320.58
341.61          341.61         341.61         341.61         341.61
341.61          341.61         341.61         341.61         341.61
341.61          341.62         341.62         341.62         341.62
341.62          341.62         341.62         341.62         341.62
341.62          341.62         341.62         341.62         341.62
362.64          362.64         362.64         362.64         362.64
362.64          362.64         362.65         362.65         362.65
362.65          362.65         362.65         362.65         362.65
362.66          362.66         362.66         362.66         362.66
362.66          362.66         362.66         362.67         362.67
383.66          383.66         383.66         383.67         383.67
383.67          383.67         383.67         383.67         383.68
383.68          383.68         383.68         383.68         383.68
383.69          383.69         383.69         383.69         383.69
383.70          383.70         383.70         383.70         383.70
404.68          404.68         404.68         404.68         404.69
404.69          404.69         404.69         404.70         404.70
404.70          404.70         404.71         404.71         404.71
404.71          404.71         404.72         404.72         404.72
404.72          404.73         404.73         404.73         404.73
425.69          425.69         425.69         425.70         425.70
425.70          425.71         425.71         425.71         425.71
425.72          425.72         425.72         425.73         425.73
425.73          425.73         425.74         425.74         425.74
425.75          425.75         425.75         425.75         425.75
435.46          435.45         435.45         435.45         435.45
435.47          435.47         435.47         435.47         435.47
435.49          435.49         435.49         435.48         435.48
435.50          435.50         435.50         435.50         435.50
435.52          435.52         435.52         435.52         435.51
445.22          445.21         445.21         445.20         445.20
445.24          445.23         445.22         445.22         445.22
445.25          445.25         445.24         445.24         445.23
445.27          445.27         445.26         445.26         445.25
445.29          445.28         445.28         445.27         445.27
454.97          454.97         454.96         454.95         454.94
454.99          454.98         454.97         454.97         454.96
455.01          455.00         454.99         454.99         454.98
455.03          455.02         455.01         455.01         455.00
455.05          455.04         455.03         455.02         455.02
464.73          464.71         464.70         464.69         464.68
464.75          464.73         464.72         464.71         464.70
464.77          464.75         464.74         464.73         464.72
464.79          464.77         464.76         464.75         464.74
464.81          464.80         464.78         464.77         464.76
474.47          474.45         474.44         474.42         474.41
474.49          474.48         474.46         474.45         474.43
474.52          474.50         474.48         474.47         474.45
474.54          474.52         474.50         474.49         474.48
474.56          474.54         474.53         474.51         474.50
476.97          476.95         476.93         476.91         476.90
476.99          476.97         476.95         476.93         476.92
477.02          477.00         476.97         476.96         476.94
477.04          477.02         477.00         476.98         476.96
477.06          477.04         477.02         477.00         476.98
479.47          479.44         479.42         479.40         479.38
479.49          479.46         479.44         479.42         479.40
479.51          479.49         479.46         479.44         479.42
479.53          479.51         479.49         479.47         479.44
479.56          479.53         479.51         479.49         479.47
481.96          481.93         481.90         481.88         481.85
481.98          481.95         481.93         481.90         481.88
482.00          481.98         481.95         481.92         481.90
482.03          482.00         481.97         481.95         481.92
482.05          482.02         482.00         481.97         481.95
484.44          484.41         484.38         484.35         484.33
484.47          484.44         484.41         484.38         484.35
484.49          484.46         484.43         484.40         484.37
484.51          484.48         484.45         484.42         484.40
484.54          484.51         484.48         484.45         484.42
486.92          486.89         486.86         486.83         486.79
486.95          486.92         486.88         486.85         486.82
486.97          486.94         486.91         486.87         486.84
486.99          486.96         486.93         486.90         486.87
487.02          486.99         486.95         486.92         486.89
484.67          484.64         484.61         484.58         484.54
484.70          484.66         484.63         484.60         484.57
484.72          484.69         484.66         484.62         484.59
484.74          484.71         484.68         484.65         484.61
484.77          484.73         484.70         484.67         484.64
482.42          482.38         482.35         482.32         482.29
482.44          482.41         482.38         482.34         482.31
482.46          482.43         482.40         482.37         482.33
482.49          482.46         482.42         482.39         482.36
482.51          482.48         482.45         482.41         482.38
480.16          480.12         480.09         480.06         480.02
480.18          480.15         480.12         480.08         480.05
480.20          480.17         480.14         480.11         480.07
480.23          480.20         480.16         480.13         480.09
480.25          480.22         480.19         480.15         480.12
477.89          477.86         477.83         477.79         477.76
477.91          477.88         477.85         477.82         477.78
477.94          477.91         477.88         477.84         477.81
477.96          477.93         477.90         477.86         477.83
477.99          477.96         477.92         477.89         477.85
475.62          475.59         475.56         475.52         475.49
475.65          475.62         475.58         475.55         475.51
475.67          475.64         475.61         475.57         475.54
475.69          475.66         475.63         475.60         475.56
475.72          475.69         475.66         475.62         475.58
465.86          465.84         465.81         465.77         465.74
465.89          465.86         465.83         465.80         465.76
465.91          465.88         465.85         465.82         465.79
465.93          465.90         465.87         465.84         465.81
465.95          465.93         465.90         465.86         465.83
456.10          456.08         456.05         456.02         455.99
456.12          456.10         456.07         456.04         456.01
456.14          456.12         456.09         456.06         456.03
456.17          456.14         456.11         456.08         456.05
456.19          456.16         456.13         456.10         456.07
446.33          446.31         446.29         446.26         446.23
446.35          446.33         446.30         446.28         446.25
446.37          446.35         446.32         446.30         446.27
446.39          446.37         446.34         446.32         446.29
446.41          446.39         446.36         446.33         446.31
436.56          436.54         436.52         436.49         436.47
436.58          436.56         436.53         436.51         436.49
436.60          436.57         436.55         436.53         436.50
436.61          436.59         436.57         436.54         436.52
436.63          436.61         436.59         436.56         436.54
426.78          426.76         426.74         426.72         426.70
426.80          426.78         426.76         426.74         426.72
426.81          426.79         426.77         426.75         426.73
426.83          426.81         426.79         426.77         426.75
426.85          426.83         426.81         426.78         426.76
405.57          405.55         405.53         405.52         405.50
405.58          405.56         405.55         405.53         405.51
405.59          405.58         405.56         405.54         405.53
405.61          405.59         405.57         405.56         405.54
405.62          405.60         405.59         405.57         405.55
384.35          384.33         384.32         384.31         384.29
384.36          384.34         384.33         384.32         384.30
384.37          384.35         384.34         384.33         384.31
384.38          384.36         384.35         384.34         384.32
384.39          384.37         384.36         384.35         384.33
363.12          363.11         363.10         363.09         363.08
363.13          363.12         363.11         363.10         363.09
363.13          363.12         363.12         363.11         363.10
363.14          363.13         363.12         363.11         363.10
363.15          363.14         363.13         363.12         363.11
341.89          341.88         341.88         341.87         341.87
341.89          341.89         341.88         341.87         341.87
341.89          341.89         341.88         341.88         341.87
341.90          341.89         341.89         341.88         341.88
341.90          341.90         341.89         341.89         341.88
320.65          320.65         320.64         320.64         320.64
320.65          320.65         320.65         320.64         320.64
320.65          320.65         320.65         320.65         320.64
320.65          320.65         320.65         320.65         320.65
320.65          320.65         320.65         320.65         320.65
% Data
% T (K) @ t=6
319.57          319.57         319.57         319.57         319.57
319.57          319.57         319.57         319.57         319.57
319.57          319.57         319.57         319.57         319.57
319.57          319.57         319.57         319.57         319.57
319.57          319.57         319.58         319.58         319.58
342.07          342.07         342.07         342.07         342.07
342.07          342.07         342.08         342.08         342.08
342.08          342.08         342.08         342.08         342.08
342.08          342.08         342.08         342.08         342.08
342.09          342.09         342.09         342.09         342.09
362.95          362.95         362.95         362.95         362.96
362.96          362.96         362.96         362.96         362.96
362.97          362.97         362.97         362.97         362.97
362.97          362.97         362.97         362.97         362.97
362.98          362.98         362.98         362.98         362.98
382.22          382.22         382.22         382.22         382.22
382.23          382.23         382.23         382.23         382.23
382.24          382.24         382.24         382.24         382.24
382.24          382.24         382.24         382.25         382.25
382.25          382.25         382.25         382.25         382.25
399.86          399.86         399.86         399.86         399.86
399.88          399.88         399.88         399.87         399.87
399.89          399.89         399.89         399.89         399.89
399.90          399.90         399.90         399.90         399.90
399.91          399.91         399.91         399.91         399.91
415.89          415.89         415.89         415.89         415.89
415.91          415.91         415.90         415.90         415.90
415.92          415.92         415.92         415.92         415.92
415.94          415.93         415.93         415.93         415.93
415.95          415.95         415.94         415.94         415.94
429.54          429.53         429.53         429.53         429.52
429.55          429.55         429.54         429.54         429.54
429.57          429.56         429.56         429.56         429.55
429.58          429.58         429.57         429.57         429.57
429.60          429.59         429.59         429.59         429.58
441.45          441.44         441.43         441.43         441.42
441.46          441.46         441.45         441.45         441.44
441.48          441.47         441.47         441.46         441.46
441.50          441.49         441.49         441.48         441.47
441.52          441.51         441.50         441.50         441.49
451.63          451.62         451.61         451.60         451.59
451.65          451.64         451.63         451.62         451.61
451.66          451.65         451.65         451.64         451.63
451.68          451.67         451.66         451.65         451.65
451.70          451.69         451.68         451.67         451.66
460.08          460.06         460.05         460.04         460.03
460.10          460.08         460.07         460.06         460.05
460.12          460.10         460.09         460.08         460.07
460.14          460.12         460.11         460.10         460.09
460.16          460.14         460.13         460.12         460.11
466.79          466.78         466.76         466.75         466.73
466.81          466.80         466.78         466.77         466.75
466.84          466.82         466.80         466.79         466.77
466.86          466.84         466.82         466.81         466.79
466.88          466.86         466.84         466.83         466.81
472.10          472.08         472.06         472.04         472.03
472.12          472.10         472.08         472.06         472.05
472.14          472.12         472.10         472.09         472.07
472.17          472.15         472.13         472.11         472.09
472.19          472.17         472.15         472.13         472.11
476.22          476.20         476.18         476.15         476.13
476.24          476.22         476.20         476.18         476.16
476.27          476.24         476.22         476.20         476.18
476.29          476.26         476.24         476.22         476.20
476.31          476.29         476.26         476.24         476.22
479.15          479.13         479.11         479.08         479.06
479.18          479.15         479.13         479.10         479.08
479.20          479.18         479.15         479.13         479.10
479.22          479.20         479.17         479.15         479.13
479.25          479.22         479.20         479.17         479.15
480.90          480.88         480.85         480.82         480.80
480.93          480.90         480.87         480.85         480.82
480.95          480.92         480.90         480.87         480.84
480.97          480.94         480.92         480.89         480.87
481.00          480.97         480.94         480.91         480.89
481.47          481.44         481.41         481.38         481.35
481.49          481.46         481.43         481.40         481.37
481.51          481.48         481.45         481.43         481.40
481.54          481.51         481.48         481.45         481.42
481.56          481.53         481.50         481.47         481.44
481.12          481.09         481.06         481.03         481.00
481.15          481.12         481.09         481.06         481.03
481.17          481.14         481.11         481.08         481.05
481.19          481.16         481.13         481.10         481.07
481.22          481.19         481.16         481.13         481.10
479.57          479.54         479.51         479.48         479.45
479.60          479.57         479.54         479.50         479.47
479.62          479.59         479.56         479.53         479.50
479.64          479.61         479.58         479.55         479.52
479.67          479.64         479.60         479.57         479.54
476.82          476.79         476.75         476.72         476.69
476.84          476.81         476.78         476.75         476.71
476.86          476.83         476.80         476.77         476.74
476.89          476.85         476.82         476.79         476.76
476.91          476.88         476.85         476.81         476.78
472.85          472.82         472.79         472.76         472.73
472.87          472.84         472.81         472.78         472.75
472.90          472.87         472.83         472.80         472.77
472.92          472.89         472.86         472.83         472.79
472.94          472.91         472.88         472.85         472.82
467.68          467.65         467.62         467.59         467.56
467.70          467.67         467.64         467.61         467.58
467.72          467.69         467.66         467.63         467.60
467.74          467.71         467.68         467.65         467.62
467.77          467.74         467.71         467.68         467.65
461.04          461.01         460.99         460.96         460.93
461.06          461.04         461.01         460.98         460.95
461.09          461.06         461.03         461.00         460.97
461.11          461.08         461.05         461.02         460.99
461.13          461.10         461.07         461.04         461.01
452.64          452.61         452.58         452.56         452.53
452.66          452.63         452.60         452.58         452.55
452.68          452.65         452.62         452.60         452.57
452.70          452.67         452.64         452.62         452.59
452.72          452.69         452.66         452.64         452.61
442.46          442.44         442.41         442.39         442.36
442.48          442.46         442.43         442.41         442.38
442.50          442.48         442.45         442.42         442.40
442.52          442.49         442.47         442.44         442.42
442.54          442.51         442.49         442.46         442.44
430.52          430.49         430.47         430.45         430.43
430.53          430.51         430.49         430.47         430.44
430.55          430.53         430.51         430.48         430.46
430.57          430.54         430.52         430.50         430.48
430.58          430.56         430.54         430.52         430.49
416.80          416.78         416.76         416.74         416.72
416.81          416.79         416.78         416.76         416.74
416.83          416.81         416.79         416.77         416.75
416.84          416.83         416.81         416.79         416.77
416.86          416.84         416.82         416.80         416.78
400.66          400.64         400.63         400.61         400.59
400.67          400.65         400.64         400.62         400.61
400.68          400.67         400.65         400.63         400.62
400.70          400.68         400.66         400.65         400.63
400.71          400.69         400.68         400.66         400.64
382.87          382.86         382.84         382.83         382.82
382.88          382.87         382.86         382.84         382.83
382.89          382.88         382.87         382.85         382.84
382.90          382.89         382.88         382.86         382.85
382.91          382.90         382.89         382.87         382.86
363.44          363.43         363.42         363.41         363.40
363.45          363.44         363.43         363.42         363.41
363.45          363.44         363.43         363.43         363.42
363.46          363.45         363.44         363.43         363.42
363.47          363.46         363.45         363.44         363.43
342.36          342.36         342.35         342.34         342.34
342.37          342.36         342.35         342.35         342.34
342.37          342.36         342.36         342.35         342.35
342.37          342.37         342.36         342.36         342.35
342.38          342.37         342.37         342.36         342.36
319.64          319.64         319.64         319.63         319.63
319.64          319.64         319.64         319.64         319.63
319.64          319.64         319.64         319.64         319.64
319.64          319.64         319.64         319.64         319.64
319.64          319.64         319.64         319.64         319.64
% Data
% T (K) @ t=7
319.36          319.36         319.36         319.36         319.36
319.36          319.36         319.36         319.36         319.36
319.37          319.37         319.37         319.37         319.37
319.37          319.37         319.37         319.37         319.37
319.37          319.37         319.37         319.37         319.37
341.03          341.03         341.03         341.03         341.03
341.03          341.03         341.03         341.03         341.03
341.03          341.03         341.03         341.03         341.03
341.04          341.04         341.04         341.04         341.04
341.04          341.04         341.04         341.04         341.04
361.08          361.08         361.08         361.08         361.08
361.09          361.09         361.09         361.09         361.09
361.09          361.09         361.09         361.09         361.09
361.10          361.10         361.10         361.10         361.10
361.11          361.11         361.11         361.11         361.11
379.53          379.53         379.53         379.53         379.53
379.54          379.54         379.54         379.54         379.54
379.55          379.55         379.55         379.55         379.54
379.56          379.56         379.56         379.55         379.55
379.57          379.57         379.56         379.56         379.56
396.37          396.37         396.37         396.37         396.37
396.38          396.38         396.38         396.38         396.38
396.40          396.39         396.39         396.39         396.39
396.41          396.40         396.40         396.40         396.40
396.42          396.42         396.41         396.41         396.41
411.61          411.61         411.60         411.60         411.60
411.62          411.62         411.62         411.61         411.61
411.64          411.63         411.63         411.63         411.62
411.65          411.65         411.64         411.64         411.63
411.66          411.66         411.65         411.65         411.65
424.98          424.97         424.97         424.96         424.96
424.99          424.99         424.98         424.98         424.97
425.01          425.00         425.00         424.99         424.99
425.02          425.02         425.01         425.01         425.00
425.04          425.03         425.03         425.02         425.01
436.73          436.72         436.71         436.70         436.70
436.74          436.74         436.73         436.72         436.71
436.76          436.75         436.74         436.74         436.73
436.78          436.77         436.76         436.75         436.75
436.79          436.78         436.78         436.77         436.76
446.86          446.85         446.84         446.83         446.82
446.88          446.87         446.85         446.85         446.84
446.89          446.88         446.87         446.86         446.85
446.91          446.90         446.89         446.88         446.87
446.93          446.92         446.91         446.90         446.89
455.37          455.36         455.34         455.33         455.32
455.39          455.38         455.36         455.35         455.34
455.41          455.40         455.38         455.37         455.36
455.43          455.41         455.40         455.39         455.38
455.45          455.43         455.42         455.41         455.40
462.26          462.25         462.23         462.22         462.20
462.28          462.27         462.25         462.24         462.22
462.30          462.29         462.27         462.26         462.24
462.33          462.31         462.29         462.28         462.26
462.35          462.33         462.31         462.30         462.28
467.77          467.75         467.73         467.72         467.70
467.79          467.77         467.75         467.74         467.72
467.81          467.79         467.78         467.76         467.74
467.83          467.81         467.80         467.78         467.76
467.86          467.84         467.82         467.80         467.78
472.05          472.03         472.01         471.99         471.97
472.08          472.05         472.03         472.01         471.99
472.10          472.08         472.06         472.03         472.01
472.12          472.10         472.08         472.06         472.04
472.14          472.12         472.10         472.08         472.06
475.12          475.09         475.07         475.05         475.02
475.14          475.11         475.09         475.07         475.05
475.16          475.14         475.11         475.09         475.07
475.18          475.16         475.13         475.11         475.09
475.20          475.18         475.16         475.13         475.11
476.95          476.93         476.90         476.88         476.85
476.97          476.95         476.92         476.90         476.87
477.00          476.97         476.95         476.92         476.90
477.02          476.99         476.97         476.94         476.92
477.04          477.02         476.99         476.97         476.94
477.57          477.54         477.51         477.49         477.46
477.59          477.56         477.53         477.51         477.48
477.61          477.58         477.56         477.53         477.50
477.63          477.61         477.58         477.55         477.53
477.66          477.63         477.60         477.57         477.55
477.14          477.11         477.08         477.06         477.03
477.16          477.13         477.11         477.08         477.05
477.18          477.16         477.13         477.10         477.07
477.21          477.18         477.15         477.12         477.10
477.23          477.20         477.17         477.14         477.12
475.47          475.44         475.41         475.39         475.36
475.49          475.46         475.44         475.41         475.38
475.52          475.49         475.46         475.43         475.40
475.54          475.51         475.48         475.45         475.42
475.56          475.53         475.50         475.47         475.45
472.56          472.53         472.50         472.48         472.45
472.58          472.56         472.53         472.50         472.47
472.61          472.58         472.55         472.52         472.49
472.63          472.60         472.57         472.54         472.51
472.65          472.62         472.59         472.56         472.54
468.41          468.38         468.35         468.33         468.30
468.43          468.41         468.38         468.35         468.32
468.46          468.43         468.40         468.37         468.34
468.48          468.45         468.42         468.39         468.36
468.50          468.47         468.44         468.41         468.38
463.02          462.99         462.97         462.94         462.91
463.04          463.01         462.99         462.96         462.93
463.06          463.04         463.01         462.98         462.95
463.08          463.06         463.03         463.00         462.97
463.11          463.08         463.05         463.02         462.99
456.21          456.18         456.15         456.13         456.10
456.23          456.20         456.17         456.15         456.12
456.25          456.22         456.19         456.17         456.14
456.27          456.24         456.21         456.19         456.16
456.29          456.26         456.23         456.21         456.18
447.74          447.71         447.69         447.66         447.64
447.76          447.73         447.71         447.68         447.66
447.78          447.75         447.72         447.70         447.67
447.80          447.77         447.74         447.72         447.69
447.81          447.79         447.76         447.74         447.71
437.62          437.59         437.57         437.55         437.52
437.63          437.61         437.59         437.56         437.54
437.65          437.63         437.61         437.58         437.56
437.67          437.65         437.62         437.60         437.58
437.69          437.66         437.64         437.62         437.59
425.84          425.82         425.80         425.78         425.76